+ 0.1 0 1 cbr 210 ------- 0 0.0 2.0 0 0
- 0.1 0 1 cbr 210 ------- 0 0.0 2.0 0 0
+ 0.10375 0 1 cbr 210 ------- 0 0.0 2.0 1 1
+ 0.1075 0 1 cbr 210 ------- 0 0.0 2.0 2 2
+ 0.11125 0 1 cbr 210 ------- 0 0.0 2.0 3 3
+ 0.115 0 1 cbr 210 ------- 0 0.0 2.0 4 4
+ 0.11875 0 1 cbr 210 ------- 0 0.0 2.0 5 5
+ 0.1225 0 1 cbr 210 ------- 0 0.0 2.0 6 6
+ 0.12625 0 1 cbr 210 ------- 0 0.0 2.0 7 7
+ 0.13 0 1 cbr 210 ------- 0 0.0 2.0 8 8
+ 0.13375 0 1 cbr 210 ------- 0 0.0 2.0 9 9
+ 0.1375 0 1 cbr 210 ------- 0 0.0 2.0 10 10
+ 0.14125 0 1 cbr 210 ------- 0 0.0 2.0 11 11
+ 0.145 0 1 cbr 210 ------- 0 0.0 2.0 12 12
+ 0.14875 0 1 cbr 210 ------- 0 0.0 2.0 13 13
+ 0.1525 0 1 cbr 210 ------- 0 0.0 2.0 14 14
+ 0.15625 0 1 cbr 210 ------- 0 0.0 2.0 15 15
+ 0.16 0 1 cbr 210 ------- 0 0.0 2.0 16 16
+ 0.16375 0 1 cbr 210 ------- 0 0.0 2.0 17 17
+ 0.1675 0 1 cbr 210 ------- 0 0.0 2.0 18 18
+ 0.17125 0 1 cbr 210 ------- 0 0.0 2.0 19 19
+ 0.175 0 1 cbr 210 ------- 0 0.0 2.0 20 20
d 0.175 0 1 cbr 210 ------- 0 0.0 2.0 20 20
+ 0.17875 0 1 cbr 210 ------- 0 0.0 2.0 21 21
d 0.17875 0 1 cbr 210 ------- 0 0.0 2.0 21 21
+ 0.1825 0 1 cbr 210 ------- 0 0.0 2.0 22 22
d 0.1825 0 1 cbr 210 ------- 0 0.0 2.0 22 22
+ 0.18625 0 1 cbr 210 ------- 0 0.0 2.0 23 23
d 0.18625 0 1 cbr 210 ------- 0 0.0 2.0 23 23
+ 0.19 0 1 cbr 210 ------- 0 0.0 2.0 24 24
d 0.19 0 1 cbr 210 ------- 0 0.0 2.0 24 24
+ 0.19375 0 1 cbr 210 ------- 0 0.0 2.0 25 25
d 0.19375 0 1 cbr 210 ------- 0 0.0 2.0 25 25
+ 0.1975 0 1 cbr 210 ------- 0 0.0 2.0 26 26
d 0.1975 0 1 cbr 210 ------- 0 0.0 2.0 26 26
+ 0.20125 0 1 cbr 210 ------- 0 0.0 2.0 27 27
d 0.20125 0 1 cbr 210 ------- 0 0.0 2.0 27 27
+ 0.205 0 1 cbr 210 ------- 0 0.0 2.0 28 28
d 0.205 0 1 cbr 210 ------- 0 0.0 2.0 28 28
+ 0.20875 0 1 cbr 210 ------- 0 0.0 2.0 29 29
d 0.20875 0 1 cbr 210 ------- 0 0.0 2.0 29 29
+ 0.2125 0 1 cbr 210 ------- 0 0.0 2.0 30 30
d 0.2125 0 1 cbr 210 ------- 0 0.0 2.0 30 30
+ 0.21625 0 1 cbr 210 ------- 0 0.0 2.0 31 31
d 0.21625 0 1 cbr 210 ------- 0 0.0 2.0 31 31
+ 0.22 0 1 cbr 210 ------- 0 0.0 2.0 32 32
d 0.22 0 1 cbr 210 ------- 0 0.0 2.0 32 32
+ 0.22375 0 1 cbr 210 ------- 0 0.0 2.0 33 33
d 0.22375 0 1 cbr 210 ------- 0 0.0 2.0 33 33
+ 0.2275 0 1 cbr 210 ------- 0 0.0 2.0 34 34
d 0.2275 0 1 cbr 210 ------- 0 0.0 2.0 34 34
+ 0.23125 0 1 cbr 210 ------- 0 0.0 2.0 35 35
d 0.23125 0 1 cbr 210 ------- 0 0.0 2.0 35 35
+ 0.235 0 1 cbr 210 ------- 0 0.0 2.0 36 36
d 0.235 0 1 cbr 210 ------- 0 0.0 2.0 36 36
+ 0.23875 0 1 cbr 210 ------- 0 0.0 2.0 37 37
d 0.23875 0 1 cbr 210 ------- 0 0.0 2.0 37 37
+ 0.2425 0 1 cbr 210 ------- 0 0.0 2.0 38 38
d 0.2425 0 1 cbr 210 ------- 0 0.0 2.0 38 38
+ 0.24625 0 1 cbr 210 ------- 0 0.0 2.0 39 39
d 0.24625 0 1 cbr 210 ------- 0 0.0 2.0 39 39
+ 0.25 0 1 cbr 210 ------- 0 0.0 2.0 40 40
d 0.25 0 1 cbr 210 ------- 0 0.0 2.0 40 40
+ 0.25375 0 1 cbr 210 ------- 0 0.0 2.0 41 41
d 0.25375 0 1 cbr 210 ------- 0 0.0 2.0 41 41
+ 0.2575 0 1 cbr 210 ------- 0 0.0 2.0 42 42
d 0.2575 0 1 cbr 210 ------- 0 0.0 2.0 42 42
+ 0.26125 0 1 cbr 210 ------- 0 0.0 2.0 43 43
d 0.26125 0 1 cbr 210 ------- 0 0.0 2.0 43 43
+ 0.265 0 1 cbr 210 ------- 0 0.0 2.0 44 44
d 0.265 0 1 cbr 210 ------- 0 0.0 2.0 44 44
+ 0.26875 0 1 cbr 210 ------- 0 0.0 2.0 45 45
d 0.26875 0 1 cbr 210 ------- 0 0.0 2.0 45 45
+ 0.2725 0 1 cbr 210 ------- 0 0.0 2.0 46 46
d 0.2725 0 1 cbr 210 ------- 0 0.0 2.0 46 46
+ 0.27625 0 1 cbr 210 ------- 0 0.0 2.0 47 47
d 0.27625 0 1 cbr 210 ------- 0 0.0 2.0 47 47
+ 0.28 0 1 cbr 210 ------- 0 0.0 2.0 48 48
d 0.28 0 1 cbr 210 ------- 0 0.0 2.0 48 48
+ 0.28375 0 1 cbr 210 ------- 0 0.0 2.0 49 49
d 0.28375 0 1 cbr 210 ------- 0 0.0 2.0 49 49
+ 0.2875 0 1 cbr 210 ------- 0 0.0 2.0 50 50
d 0.2875 0 1 cbr 210 ------- 0 0.0 2.0 50 50
+ 0.29125 0 1 cbr 210 ------- 0 0.0 2.0 51 51
d 0.29125 0 1 cbr 210 ------- 0 0.0 2.0 51 51
+ 0.295 0 1 cbr 210 ------- 0 0.0 2.0 52 52
d 0.295 0 1 cbr 210 ------- 0 0.0 2.0 52 52
+ 0.29875 0 1 cbr 210 ------- 0 0.0 2.0 53 53
d 0.29875 0 1 cbr 210 ------- 0 0.0 2.0 53 53
+ 0.3025 0 1 cbr 210 ------- 0 0.0 2.0 54 54
d 0.3025 0 1 cbr 210 ------- 0 0.0 2.0 54 54
+ 0.30625 0 1 cbr 210 ------- 0 0.0 2.0 55 55
d 0.30625 0 1 cbr 210 ------- 0 0.0 2.0 55 55
+ 0.31 0 1 cbr 210 ------- 0 0.0 2.0 56 56
d 0.31 0 1 cbr 210 ------- 0 0.0 2.0 56 56
+ 0.31375 0 1 cbr 210 ------- 0 0.0 2.0 57 57
d 0.31375 0 1 cbr 210 ------- 0 0.0 2.0 57 57
+ 0.3175 0 1 cbr 210 ------- 0 0.0 2.0 58 58
d 0.3175 0 1 cbr 210 ------- 0 0.0 2.0 58 58
+ 0.32125 0 1 cbr 210 ------- 0 0.0 2.0 59 59
d 0.32125 0 1 cbr 210 ------- 0 0.0 2.0 59 59
+ 0.325 0 1 cbr 210 ------- 0 0.0 2.0 60 60
d 0.325 0 1 cbr 210 ------- 0 0.0 2.0 60 60
+ 0.32875 0 1 cbr 210 ------- 0 0.0 2.0 61 61
d 0.32875 0 1 cbr 210 ------- 0 0.0 2.0 61 61
+ 0.3325 0 1 cbr 210 ------- 0 0.0 2.0 62 62
d 0.3325 0 1 cbr 210 ------- 0 0.0 2.0 62 62
+ 0.33625 0 1 cbr 210 ------- 0 0.0 2.0 63 63
d 0.33625 0 1 cbr 210 ------- 0 0.0 2.0 63 63
+ 0.34 0 1 cbr 210 ------- 0 0.0 2.0 64 64
d 0.34 0 1 cbr 210 ------- 0 0.0 2.0 64 64
+ 0.34375 0 1 cbr 210 ------- 0 0.0 2.0 65 65
d 0.34375 0 1 cbr 210 ------- 0 0.0 2.0 65 65
+ 0.3475 0 1 cbr 210 ------- 0 0.0 2.0 66 66
d 0.3475 0 1 cbr 210 ------- 0 0.0 2.0 66 66
+ 0.35125 0 1 cbr 210 ------- 0 0.0 2.0 67 67
d 0.35125 0 1 cbr 210 ------- 0 0.0 2.0 67 67
+ 0.355 0 1 cbr 210 ------- 0 0.0 2.0 68 68
d 0.355 0 1 cbr 210 ------- 0 0.0 2.0 68 68
+ 0.35875 0 1 cbr 210 ------- 0 0.0 2.0 69 69
d 0.35875 0 1 cbr 210 ------- 0 0.0 2.0 69 69
+ 0.3625 0 1 cbr 210 ------- 0 0.0 2.0 70 70
d 0.3625 0 1 cbr 210 ------- 0 0.0 2.0 70 70
+ 0.36625 0 1 cbr 210 ------- 0 0.0 2.0 71 71
d 0.36625 0 1 cbr 210 ------- 0 0.0 2.0 71 71
+ 0.37 0 1 cbr 210 ------- 0 0.0 2.0 72 72
d 0.37 0 1 cbr 210 ------- 0 0.0 2.0 72 72
+ 0.37375 0 1 cbr 210 ------- 0 0.0 2.0 73 73
d 0.37375 0 1 cbr 210 ------- 0 0.0 2.0 73 73
+ 0.3775 0 1 cbr 210 ------- 0 0.0 2.0 74 74
d 0.3775 0 1 cbr 210 ------- 0 0.0 2.0 74 74
+ 0.38125 0 1 cbr 210 ------- 0 0.0 2.0 75 75
d 0.38125 0 1 cbr 210 ------- 0 0.0 2.0 75 75
+ 0.385 0 1 cbr 210 ------- 0 0.0 2.0 76 76
d 0.385 0 1 cbr 210 ------- 0 0.0 2.0 76 76
+ 0.38875 0 1 cbr 210 ------- 0 0.0 2.0 77 77
d 0.38875 0 1 cbr 210 ------- 0 0.0 2.0 77 77
+ 0.3925 0 1 cbr 210 ------- 0 0.0 2.0 78 78
d 0.3925 0 1 cbr 210 ------- 0 0.0 2.0 78 78
+ 0.39625 0 1 cbr 210 ------- 0 0.0 2.0 79 79
d 0.39625 0 1 cbr 210 ------- 0 0.0 2.0 79 79
+ 0.4 0 1 cbr 210 ------- 0 0.0 2.0 80 80
d 0.4 0 1 cbr 210 ------- 0 0.0 2.0 80 80
+ 0.40375 0 1 cbr 210 ------- 0 0.0 2.0 81 81
d 0.40375 0 1 cbr 210 ------- 0 0.0 2.0 81 81
+ 0.4075 0 1 cbr 210 ------- 0 0.0 2.0 82 82
d 0.4075 0 1 cbr 210 ------- 0 0.0 2.0 82 82
+ 0.41125 0 1 cbr 210 ------- 0 0.0 2.0 83 83
d 0.41125 0 1 cbr 210 ------- 0 0.0 2.0 83 83
+ 0.415 0 1 cbr 210 ------- 0 0.0 2.0 84 84
d 0.415 0 1 cbr 210 ------- 0 0.0 2.0 84 84
+ 0.41875 0 1 cbr 210 ------- 0 0.0 2.0 85 85
d 0.41875 0 1 cbr 210 ------- 0 0.0 2.0 85 85
+ 0.4225 0 1 cbr 210 ------- 0 0.0 2.0 86 86
d 0.4225 0 1 cbr 210 ------- 0 0.0 2.0 86 86
+ 0.42625 0 1 cbr 210 ------- 0 0.0 2.0 87 87
d 0.42625 0 1 cbr 210 ------- 0 0.0 2.0 87 87
+ 0.43 0 1 cbr 210 ------- 0 0.0 2.0 88 88
d 0.43 0 1 cbr 210 ------- 0 0.0 2.0 88 88
+ 0.43375 0 1 cbr 210 ------- 0 0.0 2.0 89 89
d 0.43375 0 1 cbr 210 ------- 0 0.0 2.0 89 89
+ 0.4375 0 1 cbr 210 ------- 0 0.0 2.0 90 90
d 0.4375 0 1 cbr 210 ------- 0 0.0 2.0 90 90
+ 0.44125 0 1 cbr 210 ------- 0 0.0 2.0 91 91
d 0.44125 0 1 cbr 210 ------- 0 0.0 2.0 91 91
+ 0.445 0 1 cbr 210 ------- 0 0.0 2.0 92 92
d 0.445 0 1 cbr 210 ------- 0 0.0 2.0 92 92
+ 0.44875 0 1 cbr 210 ------- 0 0.0 2.0 93 93
d 0.44875 0 1 cbr 210 ------- 0 0.0 2.0 93 93
+ 0.4525 0 1 cbr 210 ------- 0 0.0 2.0 94 94
d 0.4525 0 1 cbr 210 ------- 0 0.0 2.0 94 94
+ 0.45625 0 1 cbr 210 ------- 0 0.0 2.0 95 95
d 0.45625 0 1 cbr 210 ------- 0 0.0 2.0 95 95
+ 0.46 0 1 cbr 210 ------- 0 0.0 2.0 96 96
d 0.46 0 1 cbr 210 ------- 0 0.0 2.0 96 96
+ 0.46375 0 1 cbr 210 ------- 0 0.0 2.0 97 97
d 0.46375 0 1 cbr 210 ------- 0 0.0 2.0 97 97
+ 0.4675 0 1 cbr 210 ------- 0 0.0 2.0 98 98
d 0.4675 0 1 cbr 210 ------- 0 0.0 2.0 98 98
+ 0.47125 0 1 cbr 210 ------- 0 0.0 2.0 99 99
d 0.47125 0 1 cbr 210 ------- 0 0.0 2.0 99 99
+ 0.475 0 1 cbr 210 ------- 0 0.0 2.0 100 100
d 0.475 0 1 cbr 210 ------- 0 0.0 2.0 100 100
+ 0.47875 0 1 cbr 210 ------- 0 0.0 2.0 101 101
d 0.47875 0 1 cbr 210 ------- 0 0.0 2.0 101 101
+ 0.4825 0 1 cbr 210 ------- 0 0.0 2.0 102 102
d 0.4825 0 1 cbr 210 ------- 0 0.0 2.0 102 102
+ 0.48625 0 1 cbr 210 ------- 0 0.0 2.0 103 103
d 0.48625 0 1 cbr 210 ------- 0 0.0 2.0 103 103
+ 0.49 0 1 cbr 210 ------- 0 0.0 2.0 104 104
d 0.49 0 1 cbr 210 ------- 0 0.0 2.0 104 104
+ 0.49375 0 1 cbr 210 ------- 0 0.0 2.0 105 105
d 0.49375 0 1 cbr 210 ------- 0 0.0 2.0 105 105
+ 0.4975 0 1 cbr 210 ------- 0 0.0 2.0 106 106
d 0.4975 0 1 cbr 210 ------- 0 0.0 2.0 106 106
+ 0.50125 0 1 cbr 210 ------- 0 0.0 2.0 107 107
d 0.50125 0 1 cbr 210 ------- 0 0.0 2.0 107 107
+ 0.505 0 1 cbr 210 ------- 0 0.0 2.0 108 108
d 0.505 0 1 cbr 210 ------- 0 0.0 2.0 108 108
+ 0.50875 0 1 cbr 210 ------- 0 0.0 2.0 109 109
d 0.50875 0 1 cbr 210 ------- 0 0.0 2.0 109 109
+ 0.5125 0 1 cbr 210 ------- 0 0.0 2.0 110 110
d 0.5125 0 1 cbr 210 ------- 0 0.0 2.0 110 110
+ 0.51625 0 1 cbr 210 ------- 0 0.0 2.0 111 111
d 0.51625 0 1 cbr 210 ------- 0 0.0 2.0 111 111
+ 0.52 0 1 cbr 210 ------- 0 0.0 2.0 112 112
d 0.52 0 1 cbr 210 ------- 0 0.0 2.0 112 112
+ 0.52375 0 1 cbr 210 ------- 0 0.0 2.0 113 113
d 0.52375 0 1 cbr 210 ------- 0 0.0 2.0 113 113
+ 0.5275 0 1 cbr 210 ------- 0 0.0 2.0 114 114
d 0.5275 0 1 cbr 210 ------- 0 0.0 2.0 114 114
+ 0.53125 0 1 cbr 210 ------- 0 0.0 2.0 115 115
d 0.53125 0 1 cbr 210 ------- 0 0.0 2.0 115 115
+ 0.535 0 1 cbr 210 ------- 0 0.0 2.0 116 116
d 0.535 0 1 cbr 210 ------- 0 0.0 2.0 116 116
+ 0.53875 0 1 cbr 210 ------- 0 0.0 2.0 117 117
d 0.53875 0 1 cbr 210 ------- 0 0.0 2.0 117 117
+ 0.5425 0 1 cbr 210 ------- 0 0.0 2.0 118 118
d 0.5425 0 1 cbr 210 ------- 0 0.0 2.0 118 118
+ 0.54625 0 1 cbr 210 ------- 0 0.0 2.0 119 119
d 0.54625 0 1 cbr 210 ------- 0 0.0 2.0 119 119
+ 0.55 0 1 cbr 210 ------- 0 0.0 2.0 120 120
d 0.55 0 1 cbr 210 ------- 0 0.0 2.0 120 120
+ 0.55375 0 1 cbr 210 ------- 0 0.0 2.0 121 121
d 0.55375 0 1 cbr 210 ------- 0 0.0 2.0 121 121
+ 0.5575 0 1 cbr 210 ------- 0 0.0 2.0 122 122
d 0.5575 0 1 cbr 210 ------- 0 0.0 2.0 122 122
+ 0.56125 0 1 cbr 210 ------- 0 0.0 2.0 123 123
d 0.56125 0 1 cbr 210 ------- 0 0.0 2.0 123 123
+ 0.565 0 1 cbr 210 ------- 0 0.0 2.0 124 124
d 0.565 0 1 cbr 210 ------- 0 0.0 2.0 124 124
+ 0.56875 0 1 cbr 210 ------- 0 0.0 2.0 125 125
d 0.56875 0 1 cbr 210 ------- 0 0.0 2.0 125 125
+ 0.5725 0 1 cbr 210 ------- 0 0.0 2.0 126 126
d 0.5725 0 1 cbr 210 ------- 0 0.0 2.0 126 126
+ 0.57625 0 1 cbr 210 ------- 0 0.0 2.0 127 127
d 0.57625 0 1 cbr 210 ------- 0 0.0 2.0 127 127
+ 0.58 0 1 cbr 210 ------- 0 0.0 2.0 128 128
d 0.58 0 1 cbr 210 ------- 0 0.0 2.0 128 128
+ 0.58375 0 1 cbr 210 ------- 0 0.0 2.0 129 129
d 0.58375 0 1 cbr 210 ------- 0 0.0 2.0 129 129
+ 0.5875 0 1 cbr 210 ------- 0 0.0 2.0 130 130
d 0.5875 0 1 cbr 210 ------- 0 0.0 2.0 130 130
+ 0.59125 0 1 cbr 210 ------- 0 0.0 2.0 131 131
d 0.59125 0 1 cbr 210 ------- 0 0.0 2.0 131 131
+ 0.595 0 1 cbr 210 ------- 0 0.0 2.0 132 132
d 0.595 0 1 cbr 210 ------- 0 0.0 2.0 132 132
+ 0.59875 0 1 cbr 210 ------- 0 0.0 2.0 133 133
d 0.59875 0 1 cbr 210 ------- 0 0.0 2.0 133 133
+ 0.6025 0 1 cbr 210 ------- 0 0.0 2.0 134 134
d 0.6025 0 1 cbr 210 ------- 0 0.0 2.0 134 134
+ 0.60625 0 1 cbr 210 ------- 0 0.0 2.0 135 135
d 0.60625 0 1 cbr 210 ------- 0 0.0 2.0 135 135
+ 0.61 0 1 cbr 210 ------- 0 0.0 2.0 136 136
d 0.61 0 1 cbr 210 ------- 0 0.0 2.0 136 136
+ 0.61375 0 1 cbr 210 ------- 0 0.0 2.0 137 137
d 0.61375 0 1 cbr 210 ------- 0 0.0 2.0 137 137
+ 0.6175 0 1 cbr 210 ------- 0 0.0 2.0 138 138
d 0.6175 0 1 cbr 210 ------- 0 0.0 2.0 138 138
+ 0.62125 0 1 cbr 210 ------- 0 0.0 2.0 139 139
d 0.62125 0 1 cbr 210 ------- 0 0.0 2.0 139 139
+ 0.625 0 1 cbr 210 ------- 0 0.0 2.0 140 140
d 0.625 0 1 cbr 210 ------- 0 0.0 2.0 140 140
+ 0.62875 0 1 cbr 210 ------- 0 0.0 2.0 141 141
d 0.62875 0 1 cbr 210 ------- 0 0.0 2.0 141 141
+ 0.6325 0 1 cbr 210 ------- 0 0.0 2.0 142 142
d 0.6325 0 1 cbr 210 ------- 0 0.0 2.0 142 142
+ 0.63625 0 1 cbr 210 ------- 0 0.0 2.0 143 143
d 0.63625 0 1 cbr 210 ------- 0 0.0 2.0 143 143
+ 0.64 0 1 cbr 210 ------- 0 0.0 2.0 144 144
d 0.64 0 1 cbr 210 ------- 0 0.0 2.0 144 144
+ 0.64375 0 1 cbr 210 ------- 0 0.0 2.0 145 145
d 0.64375 0 1 cbr 210 ------- 0 0.0 2.0 145 145
+ 0.6475 0 1 cbr 210 ------- 0 0.0 2.0 146 146
d 0.6475 0 1 cbr 210 ------- 0 0.0 2.0 146 146
+ 0.65125 0 1 cbr 210 ------- 0 0.0 2.0 147 147
d 0.65125 0 1 cbr 210 ------- 0 0.0 2.0 147 147
+ 0.655 0 1 cbr 210 ------- 0 0.0 2.0 148 148
d 0.655 0 1 cbr 210 ------- 0 0.0 2.0 148 148
+ 0.65875 0 1 cbr 210 ------- 0 0.0 2.0 149 149
d 0.65875 0 1 cbr 210 ------- 0 0.0 2.0 149 149
+ 0.6625 0 1 cbr 210 ------- 0 0.0 2.0 150 150
d 0.6625 0 1 cbr 210 ------- 0 0.0 2.0 150 150
+ 0.66625 0 1 cbr 210 ------- 0 0.0 2.0 151 151
d 0.66625 0 1 cbr 210 ------- 0 0.0 2.0 151 151
+ 0.67 0 1 cbr 210 ------- 0 0.0 2.0 152 152
d 0.67 0 1 cbr 210 ------- 0 0.0 2.0 152 152
+ 0.67375 0 1 cbr 210 ------- 0 0.0 2.0 153 153
d 0.67375 0 1 cbr 210 ------- 0 0.0 2.0 153 153
+ 0.6775 0 1 cbr 210 ------- 0 0.0 2.0 154 154
d 0.6775 0 1 cbr 210 ------- 0 0.0 2.0 154 154
+ 0.68125 0 1 cbr 210 ------- 0 0.0 2.0 155 155
d 0.68125 0 1 cbr 210 ------- 0 0.0 2.0 155 155
+ 0.685 0 1 cbr 210 ------- 0 0.0 2.0 156 156
d 0.685 0 1 cbr 210 ------- 0 0.0 2.0 156 156
+ 0.68875 0 1 cbr 210 ------- 0 0.0 2.0 157 157
d 0.68875 0 1 cbr 210 ------- 0 0.0 2.0 157 157
+ 0.6925 0 1 cbr 210 ------- 0 0.0 2.0 158 158
d 0.6925 0 1 cbr 210 ------- 0 0.0 2.0 158 158
+ 0.69625 0 1 cbr 210 ------- 0 0.0 2.0 159 159
d 0.69625 0 1 cbr 210 ------- 0 0.0 2.0 159 159
+ 0.7 0 1 cbr 210 ------- 0 0.0 2.0 160 160
d 0.7 0 1 cbr 210 ------- 0 0.0 2.0 160 160
+ 0.70375 0 1 cbr 210 ------- 0 0.0 2.0 161 161
d 0.70375 0 1 cbr 210 ------- 0 0.0 2.0 161 161
+ 0.7075 0 1 cbr 210 ------- 0 0.0 2.0 162 162
d 0.7075 0 1 cbr 210 ------- 0 0.0 2.0 162 162
+ 0.71125 0 1 cbr 210 ------- 0 0.0 2.0 163 163
d 0.71125 0 1 cbr 210 ------- 0 0.0 2.0 163 163
+ 0.715 0 1 cbr 210 ------- 0 0.0 2.0 164 164
d 0.715 0 1 cbr 210 ------- 0 0.0 2.0 164 164
+ 0.71875 0 1 cbr 210 ------- 0 0.0 2.0 165 165
d 0.71875 0 1 cbr 210 ------- 0 0.0 2.0 165 165
+ 0.7225 0 1 cbr 210 ------- 0 0.0 2.0 166 166
d 0.7225 0 1 cbr 210 ------- 0 0.0 2.0 166 166
+ 0.72625 0 1 cbr 210 ------- 0 0.0 2.0 167 167
d 0.72625 0 1 cbr 210 ------- 0 0.0 2.0 167 167
+ 0.73 0 1 cbr 210 ------- 0 0.0 2.0 168 168
d 0.73 0 1 cbr 210 ------- 0 0.0 2.0 168 168
+ 0.73375 0 1 cbr 210 ------- 0 0.0 2.0 169 169
d 0.73375 0 1 cbr 210 ------- 0 0.0 2.0 169 169
+ 0.7375 0 1 cbr 210 ------- 0 0.0 2.0 170 170
d 0.7375 0 1 cbr 210 ------- 0 0.0 2.0 170 170
+ 0.74125 0 1 cbr 210 ------- 0 0.0 2.0 171 171
d 0.74125 0 1 cbr 210 ------- 0 0.0 2.0 171 171
+ 0.745 0 1 cbr 210 ------- 0 0.0 2.0 172 172
d 0.745 0 1 cbr 210 ------- 0 0.0 2.0 172 172
+ 0.74875 0 1 cbr 210 ------- 0 0.0 2.0 173 173
d 0.74875 0 1 cbr 210 ------- 0 0.0 2.0 173 173
+ 0.7525 0 1 cbr 210 ------- 0 0.0 2.0 174 174
d 0.7525 0 1 cbr 210 ------- 0 0.0 2.0 174 174
+ 0.75625 0 1 cbr 210 ------- 0 0.0 2.0 175 175
d 0.75625 0 1 cbr 210 ------- 0 0.0 2.0 175 175
+ 0.76 0 1 cbr 210 ------- 0 0.0 2.0 176 176
d 0.76 0 1 cbr 210 ------- 0 0.0 2.0 176 176
+ 0.76375 0 1 cbr 210 ------- 0 0.0 2.0 177 177
d 0.76375 0 1 cbr 210 ------- 0 0.0 2.0 177 177
+ 0.7675 0 1 cbr 210 ------- 0 0.0 2.0 178 178
d 0.7675 0 1 cbr 210 ------- 0 0.0 2.0 178 178
+ 0.77125 0 1 cbr 210 ------- 0 0.0 2.0 179 179
d 0.77125 0 1 cbr 210 ------- 0 0.0 2.0 179 179
+ 0.775 0 1 cbr 210 ------- 0 0.0 2.0 180 180
d 0.775 0 1 cbr 210 ------- 0 0.0 2.0 180 180
+ 0.77875 0 1 cbr 210 ------- 0 0.0 2.0 181 181
d 0.77875 0 1 cbr 210 ------- 0 0.0 2.0 181 181
+ 0.7825 0 1 cbr 210 ------- 0 0.0 2.0 182 182
d 0.7825 0 1 cbr 210 ------- 0 0.0 2.0 182 182
+ 0.78625 0 1 cbr 210 ------- 0 0.0 2.0 183 183
d 0.78625 0 1 cbr 210 ------- 0 0.0 2.0 183 183
+ 0.79 0 1 cbr 210 ------- 0 0.0 2.0 184 184
d 0.79 0 1 cbr 210 ------- 0 0.0 2.0 184 184
+ 0.79375 0 1 cbr 210 ------- 0 0.0 2.0 185 185
d 0.79375 0 1 cbr 210 ------- 0 0.0 2.0 185 185
+ 0.7975 0 1 cbr 210 ------- 0 0.0 2.0 186 186
d 0.7975 0 1 cbr 210 ------- 0 0.0 2.0 186 186
+ 0.80125 0 1 cbr 210 ------- 0 0.0 2.0 187 187
d 0.80125 0 1 cbr 210 ------- 0 0.0 2.0 187 187
+ 0.805 0 1 cbr 210 ------- 0 0.0 2.0 188 188
d 0.805 0 1 cbr 210 ------- 0 0.0 2.0 188 188
+ 0.80875 0 1 cbr 210 ------- 0 0.0 2.0 189 189
d 0.80875 0 1 cbr 210 ------- 0 0.0 2.0 189 189
+ 0.8125 0 1 cbr 210 ------- 0 0.0 2.0 190 190
d 0.8125 0 1 cbr 210 ------- 0 0.0 2.0 190 190
+ 0.81625 0 1 cbr 210 ------- 0 0.0 2.0 191 191
d 0.81625 0 1 cbr 210 ------- 0 0.0 2.0 191 191
+ 0.82 0 1 cbr 210 ------- 0 0.0 2.0 192 192
d 0.82 0 1 cbr 210 ------- 0 0.0 2.0 192 192
+ 0.82375 0 1 cbr 210 ------- 0 0.0 2.0 193 193
d 0.82375 0 1 cbr 210 ------- 0 0.0 2.0 193 193
+ 0.8275 0 1 cbr 210 ------- 0 0.0 2.0 194 194
d 0.8275 0 1 cbr 210 ------- 0 0.0 2.0 194 194
+ 0.83125 0 1 cbr 210 ------- 0 0.0 2.0 195 195
d 0.83125 0 1 cbr 210 ------- 0 0.0 2.0 195 195
+ 0.835 0 1 cbr 210 ------- 0 0.0 2.0 196 196
d 0.835 0 1 cbr 210 ------- 0 0.0 2.0 196 196
+ 0.83875 0 1 cbr 210 ------- 0 0.0 2.0 197 197
d 0.83875 0 1 cbr 210 ------- 0 0.0 2.0 197 197
+ 0.8425 0 1 cbr 210 ------- 0 0.0 2.0 198 198
d 0.8425 0 1 cbr 210 ------- 0 0.0 2.0 198 198
+ 0.84625 0 1 cbr 210 ------- 0 0.0 2.0 199 199
d 0.84625 0 1 cbr 210 ------- 0 0.0 2.0 199 199
+ 0.85 0 1 cbr 210 ------- 0 0.0 2.0 200 200
d 0.85 0 1 cbr 210 ------- 0 0.0 2.0 200 200
+ 0.85375 0 1 cbr 210 ------- 0 0.0 2.0 201 201
d 0.85375 0 1 cbr 210 ------- 0 0.0 2.0 201 201
+ 0.8575 0 1 cbr 210 ------- 0 0.0 2.0 202 202
d 0.8575 0 1 cbr 210 ------- 0 0.0 2.0 202 202
+ 0.86125 0 1 cbr 210 ------- 0 0.0 2.0 203 203
d 0.86125 0 1 cbr 210 ------- 0 0.0 2.0 203 203
+ 0.865 0 1 cbr 210 ------- 0 0.0 2.0 204 204
d 0.865 0 1 cbr 210 ------- 0 0.0 2.0 204 204
+ 0.86875 0 1 cbr 210 ------- 0 0.0 2.0 205 205
d 0.86875 0 1 cbr 210 ------- 0 0.0 2.0 205 205
+ 0.8725 0 1 cbr 210 ------- 0 0.0 2.0 206 206
d 0.8725 0 1 cbr 210 ------- 0 0.0 2.0 206 206
+ 0.87625 0 1 cbr 210 ------- 0 0.0 2.0 207 207
d 0.87625 0 1 cbr 210 ------- 0 0.0 2.0 207 207
+ 0.88 0 1 cbr 210 ------- 0 0.0 2.0 208 208
d 0.88 0 1 cbr 210 ------- 0 0.0 2.0 208 208
+ 0.88375 0 1 cbr 210 ------- 0 0.0 2.0 209 209
d 0.88375 0 1 cbr 210 ------- 0 0.0 2.0 209 209
+ 0.8875 0 1 cbr 210 ------- 0 0.0 2.0 210 210
d 0.8875 0 1 cbr 210 ------- 0 0.0 2.0 210 210
+ 0.89125 0 1 cbr 210 ------- 0 0.0 2.0 211 211
d 0.89125 0 1 cbr 210 ------- 0 0.0 2.0 211 211
+ 0.895 0 1 cbr 210 ------- 0 0.0 2.0 212 212
d 0.895 0 1 cbr 210 ------- 0 0.0 2.0 212 212
+ 0.89875 0 1 cbr 210 ------- 0 0.0 2.0 213 213
d 0.89875 0 1 cbr 210 ------- 0 0.0 2.0 213 213
+ 0.9025 0 1 cbr 210 ------- 0 0.0 2.0 214 214
d 0.9025 0 1 cbr 210 ------- 0 0.0 2.0 214 214
+ 0.90625 0 1 cbr 210 ------- 0 0.0 2.0 215 215
d 0.90625 0 1 cbr 210 ------- 0 0.0 2.0 215 215
+ 0.91 0 1 cbr 210 ------- 0 0.0 2.0 216 216
d 0.91 0 1 cbr 210 ------- 0 0.0 2.0 216 216
+ 0.91375 0 1 cbr 210 ------- 0 0.0 2.0 217 217
d 0.91375 0 1 cbr 210 ------- 0 0.0 2.0 217 217
+ 0.9175 0 1 cbr 210 ------- 0 0.0 2.0 218 218
d 0.9175 0 1 cbr 210 ------- 0 0.0 2.0 218 218
+ 0.92125 0 1 cbr 210 ------- 0 0.0 2.0 219 219
d 0.92125 0 1 cbr 210 ------- 0 0.0 2.0 219 219
+ 0.925 0 1 cbr 210 ------- 0 0.0 2.0 220 220
d 0.925 0 1 cbr 210 ------- 0 0.0 2.0 220 220
+ 0.92875 0 1 cbr 210 ------- 0 0.0 2.0 221 221
d 0.92875 0 1 cbr 210 ------- 0 0.0 2.0 221 221
+ 0.9325 0 1 cbr 210 ------- 0 0.0 2.0 222 222
d 0.9325 0 1 cbr 210 ------- 0 0.0 2.0 222 222
+ 0.93625 0 1 cbr 210 ------- 0 0.0 2.0 223 223
d 0.93625 0 1 cbr 210 ------- 0 0.0 2.0 223 223
+ 0.94 0 1 cbr 210 ------- 0 0.0 2.0 224 224
d 0.94 0 1 cbr 210 ------- 0 0.0 2.0 224 224
+ 0.94375 0 1 cbr 210 ------- 0 0.0 2.0 225 225
d 0.94375 0 1 cbr 210 ------- 0 0.0 2.0 225 225
+ 0.9475 0 1 cbr 210 ------- 0 0.0 2.0 226 226
d 0.9475 0 1 cbr 210 ------- 0 0.0 2.0 226 226
+ 0.95125 0 1 cbr 210 ------- 0 0.0 2.0 227 227
d 0.95125 0 1 cbr 210 ------- 0 0.0 2.0 227 227
+ 0.955 0 1 cbr 210 ------- 0 0.0 2.0 228 228
d 0.955 0 1 cbr 210 ------- 0 0.0 2.0 228 228
+ 0.95875 0 1 cbr 210 ------- 0 0.0 2.0 229 229
d 0.95875 0 1 cbr 210 ------- 0 0.0 2.0 229 229
+ 0.9625 0 1 cbr 210 ------- 0 0.0 2.0 230 230
d 0.9625 0 1 cbr 210 ------- 0 0.0 2.0 230 230
+ 0.96625 0 1 cbr 210 ------- 0 0.0 2.0 231 231
d 0.96625 0 1 cbr 210 ------- 0 0.0 2.0 231 231
+ 0.97 0 1 cbr 210 ------- 0 0.0 2.0 232 232
d 0.97 0 1 cbr 210 ------- 0 0.0 2.0 232 232
+ 0.97375 0 1 cbr 210 ------- 0 0.0 2.0 233 233
d 0.97375 0 1 cbr 210 ------- 0 0.0 2.0 233 233
+ 0.9775 0 1 cbr 210 ------- 0 0.0 2.0 234 234
d 0.9775 0 1 cbr 210 ------- 0 0.0 2.0 234 234
+ 0.98125 0 1 cbr 210 ------- 0 0.0 2.0 235 235
d 0.98125 0 1 cbr 210 ------- 0 0.0 2.0 235 235
+ 0.985 0 1 cbr 210 ------- 0 0.0 2.0 236 236
d 0.985 0 1 cbr 210 ------- 0 0.0 2.0 236 236
+ 0.98875 0 1 cbr 210 ------- 0 0.0 2.0 237 237
d 0.98875 0 1 cbr 210 ------- 0 0.0 2.0 237 237
+ 0.9925 0 1 cbr 210 ------- 0 0.0 2.0 238 238
d 0.9925 0 1 cbr 210 ------- 0 0.0 2.0 238 238
+ 0.99625 0 1 cbr 210 ------- 0 0.0 2.0 239 239
d 0.99625 0 1 cbr 210 ------- 0 0.0 2.0 239 239
